PROCAR lm decomposed
# of k-points:   90         # of bands:  24         # of ions:   2

 k-point   17 :    0.50000000 0.50000000 0.00000000     weight = 0.00000000

band   1 # energy  -30.22077592 # occ.  2.00000000
 
ion      s     py     pz     px    dxy    dyz    dz2    dxz    dx2    tot
  1  0.025  0.000  0.005  0.054  0.000  0.000  0.000  0.000  0.000  0.084
  2  0.735  0.000  0.018  0.001  0.000  0.000  0.000  0.000  0.000  0.753
tot  0.760  0.000  0.023  0.054  0.000  0.000  0.000  0.000  0.000  0.837
 
band   2 # energy  -21.82480272 # occ.  2.00000000
 
ion      s     py     pz     px    dxy    dyz    dz2    dxz    dx2    tot
  1  0.228  0.000  0.040  0.036  0.000  0.000  0.000  0.000  0.000  0.304
  2  0.005  0.000  0.000  0.377  0.000  0.000  0.000  0.000  0.000  0.383
tot  0.233  0.000  0.040  0.413  0.000  0.000  0.000  0.000  0.000  0.687
 
band   3 # energy  -13.72791061 # occ.  2.00000000
 
ion      s     py     pz     px    dxy    dyz    dz2    dxz    dx2    tot
  1  0.000  0.176  0.000  0.000  0.000  0.000  0.000  0.000  0.000  0.176
  2  0.000  0.625  0.000  0.000  0.000  0.000  0.000  0.000  0.000  0.625
tot  0.000  0.801  0.000  0.000  0.000  0.000  0.000  0.000  0.000  0.801
 
band   4 # energy  -13.46156033 # occ.  2.00000000
 
ion      s     py     pz     px    dxy    dyz    dz2    dxz    dx2    tot
  1  0.037  0.000  0.003  0.084  0.000  0.000  0.000  0.000  0.000  0.124
  2  0.072  0.000  0.538  0.001  0.000  0.000  0.000  0.000  0.000  0.611
tot  0.109  0.000  0.541  0.085  0.000  0.000  0.000  0.000  0.000  0.735
 
band   5 # energy   -6.99852760 # occ.  2.00000000
 
ion      s     py     pz     px    dxy    dyz    dz2    dxz    dx2    tot
  1  0.247  0.000  0.215  0.014  0.000  0.000  0.000  0.000  0.000  0.475
  2  0.000  0.000  0.027  0.100  0.000  0.000  0.000  0.000  0.000  0.127
tot  0.247  0.000  0.241  0.114  0.000  0.000  0.000  0.000  0.000  0.602
 
band   6 # energy   -1.34408887 # occ.  0.00000000
 
ion      s     py     pz     px    dxy    dyz    dz2    dxz    dx2    tot
  1  0.084  0.000  0.046  0.182  0.000  0.000  0.000  0.000  0.000  0.312
  2  0.083  0.000  0.156  0.005  0.000  0.000  0.000  0.000  0.000  0.244
tot  0.167  0.000  0.202  0.186  0.000  0.000  0.000  0.000  0.000  0.555
 
band   7 # energy    2.39357126 # occ.  0.00000000
 
ion      s     py     pz     px    dxy    dyz    dz2    dxz    dx2    tot
  1  0.051  0.000  0.268  0.057  0.000  0.000  0.000  0.000  0.000  0.376
  2  0.001  0.000  0.034  0.170  0.000  0.000  0.000  0.000  0.000  0.205
tot  0.052  0.000  0.302  0.227  0.000  0.000  0.000  0.000  0.000  0.581
 
band   8 # energy    3.64651174 # occ.  0.00000000
 
ion      s     py     pz     px    dxy    dyz    dz2    dxz    dx2    tot
  1  0.000  0.533  0.000  0.000  0.000  0.000  0.000  0.000  0.000  0.533
  2  0.000  0.228  0.000  0.000  0.000  0.000  0.000  0.000  0.000  0.228
tot  0.000  0.760  0.000  0.000  0.000  0.000  0.000  0.000  0.000  0.760
 
band   9 # energy    8.29682409 # occ.  0.00000000
 
ion      s     py     pz     px    dxy    dyz    dz2    dxz    dx2    tot
  1  0.002  0.000  0.000  0.001  0.000  0.000  0.000  0.000  0.000  0.002
  2  0.000  0.000  0.002  0.041  0.000  0.000  0.000  0.000  0.000  0.043
tot  0.002  0.000  0.002  0.042  0.000  0.000  0.000  0.000  0.000  0.046
 
band  10 # energy    8.97093418 # occ.  0.00000000
 
ion      s     py     pz     px    dxy    dyz    dz2    dxz    dx2    tot
  1  0.001  0.000  0.000  0.001  0.000  0.000  0.000  0.000  0.000  0.002
  2  0.003  0.000  0.015  0.000  0.000  0.000  0.000  0.000  0.000  0.018
tot  0.004  0.000  0.015  0.001  0.000  0.000  0.000  0.000  0.000  0.019
 
band  11 # energy    9.98640540 # occ.  0.00000000
 
ion      s     py     pz     px    dxy    dyz    dz2    dxz    dx2    tot
  1  0.000  0.000  0.001  0.000  0.000  0.000  0.000  0.000  0.000  0.001
  2  0.000  0.000  0.001  0.003  0.000  0.000  0.000  0.000  0.000  0.004
tot  0.000  0.000  0.001  0.004  0.000  0.000  0.000  0.000  0.000  0.005
 
band  12 # energy   10.27448863 # occ.  0.00000000
 
ion      s     py     pz     px    dxy    dyz    dz2    dxz    dx2    tot
  1  0.001  0.000  0.000  0.000  0.000  0.000  0.000  0.000  0.000  0.001
  2  0.001  0.000  0.006  0.000  0.000  0.000  0.000  0.000  0.000  0.008
tot  0.002  0.000  0.007  0.000  0.000  0.000  0.000  0.000  0.000  0.009
 
band  13 # energy   11.02996544 # occ.  0.00000000
 
ion      s     py     pz     px    dxy    dyz    dz2    dxz    dx2    tot
  1  0.002  0.000  0.010  0.021  0.000  0.000  0.000  0.000  0.000  0.033
  2  0.002  0.000  0.000  0.019  0.000  0.000  0.000  0.000  0.000  0.021
tot  0.003  0.000  0.010  0.041  0.000  0.000  0.000  0.000  0.000  0.054
 
band  14 # energy   11.73660292 # occ.  0.00000000
 
ion      s     py     pz     px    dxy    dyz    dz2    dxz    dx2    tot
  1  0.000  0.000  0.006  0.015  0.000  0.000  0.000  0.000  0.000  0.021
  2  0.001  0.000  0.001  0.053  0.000  0.000  0.000  0.000  0.000  0.054
tot  0.001  0.000  0.006  0.067  0.000  0.000  0.000  0.000  0.000  0.074
 
band  15 # energy   12.02573442 # occ.  0.00000000
 
ion      s     py     pz     px    dxy    dyz    dz2    dxz    dx2    tot
  1  0.004  0.000  0.001  0.001  0.000  0.000  0.000  0.000  0.000  0.005
  2  0.002  0.000  0.009  0.001  0.000  0.000  0.000  0.000  0.000  0.012
tot  0.006  0.000  0.010  0.001  0.000  0.000  0.000  0.000  0.000  0.017
 
band  16 # energy   12.20245291 # occ.  0.00000000
 
ion      s     py     pz     px    dxy    dyz    dz2    dxz    dx2    tot
  1  0.004  0.000  0.015  0.000  0.000  0.000  0.000  0.000  0.000  0.020
  2  0.000  0.000  0.000  0.000  0.000  0.000  0.000  0.000  0.000  0.001
tot  0.005  0.000  0.015  0.000  0.000  0.000  0.000  0.000  0.000  0.020
 
band  17 # energy   12.90062118 # occ.  0.00000000
 
ion      s     py     pz     px    dxy    dyz    dz2    dxz    dx2    tot
  1  0.000  0.000  0.001  0.000  0.000  0.000  0.000  0.000  0.000  0.002
  2  0.000  0.000  0.000  0.000  0.000  0.000  0.000  0.000  0.000  0.001
tot  0.000  0.000  0.002  0.001  0.000  0.000  0.000  0.000  0.000  0.003
 
band  18 # energy   13.19241316 # occ.  0.00000000
 
ion      s     py     pz     px    dxy    dyz    dz2    dxz    dx2    tot
  1  0.002  0.000  0.007  0.004  0.000  0.000  0.000  0.000  0.000  0.013
  2  0.000  0.000  0.002  0.012  0.000  0.000  0.000  0.000  0.000  0.014
tot  0.002  0.000  0.009  0.017  0.000  0.000  0.000  0.000  0.000  0.028
 
band  19 # energy   13.91466381 # occ.  0.00000000
 
ion      s     py     pz     px    dxy    dyz    dz2    dxz    dx2    tot
  1  0.003  0.000  0.005  0.001  0.000  0.000  0.000  0.000  0.000  0.008
  2  0.002  0.000  0.007  0.049  0.000  0.000  0.000  0.000  0.000  0.058
tot  0.005  0.000  0.012  0.050  0.000  0.000  0.000  0.000  0.000  0.067
 
band  20 # energy   14.18203198 # occ.  0.00000000
 
ion      s     py     pz     px    dxy    dyz    dz2    dxz    dx2    tot
  1  0.001  0.000  0.015  0.000  0.000  0.000  0.000  0.000  0.000  0.017
  2  0.000  0.000  0.006  0.001  0.000  0.000  0.000  0.000  0.000  0.007
tot  0.001  0.000  0.021  0.001  0.000  0.000  0.000  0.000  0.000  0.023
 
band  21 # energy   14.74543909 # occ.  0.00000000
 
ion      s     py     pz     px    dxy    dyz    dz2    dxz    dx2    tot
  1  0.000  0.000  0.001  0.000  0.000  0.000  0.000  0.000  0.000  0.002
  2  0.002  0.000  0.000  0.002  0.000  0.000  0.000  0.000  0.000  0.004
tot  0.002  0.000  0.001  0.003  0.000  0.000  0.000  0.000  0.000  0.006
 
band  22 # energy   15.22066171 # occ.  0.00000000
 
ion      s     py     pz     px    dxy    dyz    dz2    dxz    dx2    tot
  1  0.005  0.000  0.014  0.001  0.000  0.000  0.000  0.000  0.000  0.019
  2  0.001  0.000  0.001  0.022  0.000  0.000  0.000  0.000  0.000  0.023
tot  0.006  0.000  0.014  0.022  0.000  0.000  0.000  0.000  0.000  0.043
 
band  23 # energy   15.83637800 # occ.  0.00000000
 
ion      s     py     pz     px    dxy    dyz    dz2    dxz    dx2    tot
  1  0.002  0.000  0.018  0.024  0.000  0.000  0.000  0.000  0.000  0.044
  2  0.000  0.000  0.031  0.047  0.000  0.000  0.000  0.000  0.000  0.078
tot  0.002  0.000  0.049  0.071  0.000  0.000  0.000  0.000  0.000  0.122
 
band  24 # energy   16.98833359 # occ.  0.00000000
 
ion      s     py     pz     px    dxy    dyz    dz2    dxz    dx2    tot
  1  0.005  0.000  0.022  0.013  0.000  0.000  0.000  0.000  0.000  0.040
  2  0.001  0.000  0.006  0.004  0.000  0.000  0.000  0.000  0.000  0.012
tot  0.006  0.000  0.028  0.017  0.000  0.000  0.000  0.000  0.000  0.051
 

 k-point   18 :    0.48275862 0.48275862 0.00000000     weight = 0.00000000

band   1 # energy  -30.24175668 # occ.  2.00000000
 
ion      s     py     pz     px    dxy    dyz    dz2    dxz    dx2    tot
  1  0.026  0.000  0.005  0.053  0.000  0.000  0.000  0.000  0.000  0.085
  2  0.733  0.000  0.018  0.001  0.000  0.000  0.000  0.000  0.000  0.752
tot  0.759  0.000  0.023  0.054  0.000  0.000  0.000  0.000  0.000  0.837
 
band   2 # energy  -21.79083426 # occ.  2.00000000
 
ion      s     py     pz     px    dxy    dyz    dz2    dxz    dx2    tot
  1  0.227  0.000  0.039  0.036  0.000  0.000  0.000  0.000  0.000  0.303
  2  0.007  0.000  0.000  0.377  0.000  0.000  0.000  0.000  0.000  0.384
tot  0.234  0.000  0.040  0.414  0.000  0.000  0.000  0.000  0.000  0.688
 
band   3 # energy  -13.72151873 # occ.  2.00000000
 
ion      s     py     pz     px    dxy    dyz    dz2    dxz    dx2    tot
  1  0.000  0.176  0.000  0.000  0.000  0.000  0.000  0.000  0.000  0.176
  2  0.000  0.625  0.000  0.000  0.000  0.000  0.000  0.000  0.000  0.625
tot  0.000  0.801  0.000  0.000  0.000  0.000  0.000  0.000  0.000  0.801
 
band   4 # energy  -13.47817377 # occ.  2.00000000
 
ion      s     py     pz     px    dxy    dyz    dz2    dxz    dx2    tot
  1  0.038  0.000  0.003  0.083  0.000  0.000  0.000  0.000  0.000  0.124
  2  0.072  0.000  0.536  0.001  0.000  0.000  0.000  0.000  0.000  0.609
tot  0.110  0.000  0.539  0.084  0.000  0.000  0.000  0.000  0.000  0.734
 
band   5 # energy   -6.99075843 # occ.  2.00000000
 
ion      s     py     pz     px    dxy    dyz    dz2    dxz    dx2    tot
  1  0.245  0.000  0.215  0.014  0.000  0.000  0.000  0.000  0.000  0.474
  2  0.000  0.000  0.030  0.100  0.000  0.000  0.000  0.000  0.000  0.129
tot  0.245  0.000  0.244  0.113  0.000  0.000  0.000  0.000  0.000  0.603
 
band   6 # energy   -1.34401831 # occ.  0.00000000
 
ion      s     py     pz     px    dxy    dyz    dz2    dxz    dx2    tot
  1  0.085  0.000  0.046  0.182  0.000  0.000  0.000  0.000  0.000  0.313
  2  0.083  0.000  0.154  0.005  0.000  0.000  0.000  0.000  0.000  0.243
tot  0.167  0.000  0.200  0.188  0.000  0.000  0.000  0.000  0.000  0.555
 
band   7 # energy    2.40356018 # occ.  0.00000000
 
ion      s     py     pz     px    dxy    dyz    dz2    dxz    dx2    tot
  1  0.051  0.000  0.267  0.057  0.000  0.000  0.000  0.000  0.000  0.376
  2  0.001  0.000  0.034  0.170  0.000  0.000  0.000  0.000  0.000  0.205
tot  0.052  0.000  0.301  0.228  0.000  0.000  0.000  0.000  0.000  0.581
 
band   8 # energy    3.64583939 # occ.  0.00000000
 
ion      s     py     pz     px    dxy    dyz    dz2    dxz    dx2    tot
  1  0.000  0.533  0.000  0.000  0.000  0.000  0.000  0.000  0.000  0.533
  2  0.000  0.228  0.000  0.000  0.000  0.000  0.000  0.000  0.000  0.228
tot  0.000  0.761  0.000  0.000  0.000  0.000  0.000  0.000  0.000  0.761
 
band   9 # energy    8.00764486 # occ.  0.00000000
 
ion      s     py     pz     px    dxy    dyz    dz2    dxz    dx2    tot
  1  0.002  0.000  0.000  0.001  0.000  0.000  0.000  0.000  0.000  0.003
  2  0.001  0.000  0.007  0.030  0.000  0.000  0.000  0.000  0.000  0.038
tot  0.003  0.000  0.008  0.031  0.000  0.000  0.000  0.000  0.000  0.041
 
band  10 # energy    9.16480290 # occ.  0.00000000
 
ion      s     py     pz     px    dxy    dyz    dz2    dxz    dx2    tot
  1  0.000  0.000  0.000  0.000  0.000  0.000  0.000  0.000  0.000  0.001
  2  0.001  0.000  0.005  0.013  0.000  0.000  0.000  0.000  0.000  0.019
tot  0.001  0.000  0.006  0.013  0.000  0.000  0.000  0.000  0.000  0.020
 
band  11 # energy    9.64296178 # occ.  0.00000000
 
ion      s     py     pz     px    dxy    dyz    dz2    dxz    dx2    tot
  1  0.001  0.000  0.000  0.000  0.000  0.000  0.000  0.000  0.000  0.001
  2  0.002  0.000  0.009  0.000  0.000  0.000  0.000  0.000  0.000  0.010
tot  0.002  0.000  0.009  0.000  0.000  0.000  0.000  0.000  0.000  0.011
 
band  12 # energy   10.59635252 # occ.  0.00000000
 
ion      s     py     pz     px    dxy    dyz    dz2    dxz    dx2    tot
  1  0.000  0.000  0.004  0.005  0.000  0.000  0.000  0.000  0.000  0.009
  2  0.001  0.000  0.001  0.001  0.000  0.000  0.000  0.000  0.000  0.002
tot  0.001  0.000  0.005  0.006  0.000  0.000  0.000  0.000  0.000  0.011
 
band  13 # energy   11.00030946 # occ.  0.00000000
 
ion      s     py     pz     px    dxy    dyz    dz2    dxz    dx2    tot
  1  0.003  0.000  0.007  0.015  0.000  0.000  0.000  0.000  0.000  0.024
  2  0.001  0.000  0.004  0.021  0.000  0.000  0.000  0.000  0.000  0.027
tot  0.004  0.000  0.011  0.036  0.000  0.000  0.000  0.000  0.000  0.051
 
band  14 # energy   11.35321050 # occ.  0.00000000
 
ion      s     py     pz     px    dxy    dyz    dz2    dxz    dx2    tot
  1  0.001  0.000  0.004  0.008  0.000  0.000  0.000  0.000  0.000  0.013
  2  0.002  0.000  0.003  0.027  0.000  0.000  0.000  0.000  0.000  0.032
tot  0.003  0.000  0.008  0.035  0.000  0.000  0.000  0.000  0.000  0.045
 
band  15 # energy   12.07957442 # occ.  0.00000000
 
ion      s     py     pz     px    dxy    dyz    dz2    dxz    dx2    tot
  1  0.002  0.000  0.007  0.003  0.000  0.000  0.000  0.000  0.000  0.012
  2  0.000  0.000  0.001  0.001  0.000  0.000  0.000  0.000  0.000  0.003
tot  0.003  0.000  0.008  0.005  0.000  0.000  0.000  0.000  0.000  0.015
 
band  16 # energy   12.46958313 # occ.  0.00000000
 
ion      s     py     pz     px    dxy    dyz    dz2    dxz    dx2    tot
  1  0.000  0.000  0.008  0.009  0.000  0.000  0.000  0.000  0.000  0.017
  2  0.000  0.000  0.002  0.032  0.000  0.000  0.000  0.000  0.000  0.034
tot  0.000  0.000  0.010  0.041  0.000  0.000  0.000  0.000  0.000  0.051
 
band  17 # energy   12.71732903 # occ.  0.00000000
 
ion      s     py     pz     px    dxy    dyz    dz2    dxz    dx2    tot
  1  0.005  0.000  0.006  0.000  0.000  0.000  0.000  0.000  0.000  0.012
  2  0.001  0.000  0.004  0.003  0.000  0.000  0.000  0.000  0.000  0.009
tot  0.006  0.000  0.011  0.003  0.000  0.000  0.000  0.000  0.000  0.020
 
band  18 # energy   13.42447737 # occ.  0.00000000
 
ion      s     py     pz     px    dxy    dyz    dz2    dxz    dx2    tot
  1  0.000  0.000  0.008  0.001  0.000  0.000  0.000  0.000  0.000  0.010
  2  0.001  0.000  0.003  0.016  0.000  0.000  0.000  0.000  0.000  0.020
tot  0.001  0.000  0.011  0.017  0.000  0.000  0.000  0.000  0.000  0.030
 
band  19 # energy   13.77529726 # occ.  0.00000000
 
ion      s     py     pz     px    dxy    dyz    dz2    dxz    dx2    tot
  1  0.003  0.000  0.000  0.000  0.000  0.000  0.000  0.000  0.000  0.003
  2  0.001  0.000  0.002  0.008  0.000  0.000  0.000  0.000  0.000  0.010
tot  0.004  0.000  0.002  0.008  0.000  0.000  0.000  0.000  0.000  0.013
 
band  20 # energy   14.18860088 # occ.  0.00000000
 
ion      s     py     pz     px    dxy    dyz    dz2    dxz    dx2    tot
  1  0.001  0.000  0.015  0.003  0.000  0.000  0.000  0.000  0.000  0.018
  2  0.000  0.000  0.005  0.020  0.000  0.000  0.000  0.000  0.000  0.026
tot  0.001  0.000  0.020  0.023  0.000  0.000  0.000  0.000  0.000  0.044
 
band  21 # energy   14.86858715 # occ.  0.00000000
 
ion      s     py     pz     px    dxy    dyz    dz2    dxz    dx2    tot
  1  0.004  0.000  0.002  0.001  0.000  0.000  0.000  0.000  0.000  0.007
  2  0.001  0.000  0.007  0.023  0.000  0.000  0.000  0.000  0.000  0.031
tot  0.005  0.000  0.009  0.024  0.000  0.000  0.000  0.000  0.000  0.038
 
band  22 # energy   15.28475415 # occ.  0.00000000
 
ion      s     py     pz     px    dxy    dyz    dz2    dxz    dx2    tot
  1  0.001  0.000  0.020  0.002  0.000  0.000  0.000  0.000  0.000  0.023
  2  0.002  0.000  0.007  0.022  0.000  0.000  0.000  0.000  0.000  0.030
tot  0.003  0.000  0.027  0.024  0.000  0.000  0.000  0.000  0.000  0.054
 
band  23 # energy   16.01299601 # occ.  0.00000000
 
ion      s     py     pz     px    dxy    dyz    dz2    dxz    dx2    tot
  1  0.003  0.000  0.010  0.020  0.000  0.000  0.000  0.000  0.000  0.033
  2  0.000  0.000  0.019  0.032  0.000  0.000  0.000  0.000  0.000  0.051
tot  0.003  0.000  0.028  0.052  0.000  0.000  0.000  0.000  0.000  0.083
 
band  24 # energy   16.70435528 # occ.  0.00000000
 
ion      s     py     pz     px    dxy    dyz    dz2    dxz    dx2    tot
  1  0.003  0.000  0.020  0.016  0.000  0.000  0.000  0.000  0.000  0.039
  2  0.004  0.000  0.006  0.003  0.000  0.000  0.000  0.000  0.000  0.013
tot  0.008  0.000  0.026  0.020  0.000  0.000  0.000  0.000  0.000  0.053
 

 k-point   19 :    0.46551724 0.46551724 0.00000000     weight = 0.00000000

band   1 # energy  -30.30399781 # occ.  2.00000000
 
ion      s     py     pz     px    dxy    dyz    dz2    dxz    dx2    tot
  1  0.029  0.000  0.006  0.052  0.000  0.000  0.000  0.000  0.000  0.087
  2  0.728  0.000  0.018  0.002  0.000  0.000  0.000  0.000  0.000  0.748
tot  0.757  0.000  0.024  0.054  0.000  0.000  0.000  0.000  0.000  0.835
 
band   2 # energy  -21.69020531 # occ.  2.00000000
 
ion      s     py     pz     px    dxy    dyz    dz2    dxz    dx2    tot
  1  0.225  0.000  0.039  0.037  0.000  0.000  0.000  0.000  0.000  0.301
  2  0.012  0.000  0.000  0.377  0.000  0.000  0.000  0.000  0.000  0.389
tot  0.237  0.000  0.039  0.414  0.000  0.000  0.000  0.000  0.000  0.690
 
band   3 # energy  -13.70276510 # occ.  2.00000000
 
ion      s     py     pz     px    dxy    dyz    dz2    dxz    dx2    tot
  1  0.000  0.176  0.000  0.000  0.000  0.000  0.000  0.000  0.000  0.176
  2  0.000  0.626  0.000  0.000  0.000  0.000  0.000  0.000  0.000  0.626
tot  0.000  0.801  0.000  0.000  0.000  0.000  0.000  0.000  0.000  0.801
 
band   4 # energy  -13.52770742 # occ.  2.00000000
 
ion      s     py     pz     px    dxy    dyz    dz2    dxz    dx2    tot
  1  0.040  0.000  0.004  0.082  0.000  0.000  0.000  0.000  0.000  0.126
  2  0.071  0.000  0.531  0.002  0.000  0.000  0.000  0.000  0.000  0.604
tot  0.111  0.000  0.535  0.084  0.000  0.000  0.000  0.000  0.000  0.730
 
band   5 # energy   -6.96883860 # occ.  2.00000000
 
ion      s     py     pz     px    dxy    dyz    dz2    dxz    dx2    tot
  1  0.241  0.000  0.214  0.014  0.000  0.000  0.000  0.000  0.000  0.469
  2  0.000  0.000  0.038  0.098  0.000  0.000  0.000  0.000  0.000  0.136
tot  0.241  0.000  0.253  0.112  0.000  0.000  0.000  0.000  0.000  0.606
 
band   6 # energy   -1.34409905 # occ.  0.00000000
 
ion      s     py     pz     px    dxy    dyz    dz2    dxz    dx2    tot
  1  0.086  0.000  0.046  0.184  0.000  0.000  0.000  0.000  0.000  0.316
  2  0.082  0.000  0.150  0.007  0.000  0.000  0.000  0.000  0.000  0.239
tot  0.168  0.000  0.196  0.192  0.000  0.000  0.000  0.000  0.000  0.556
 
band   7 # energy    2.43203949 # occ.  0.00000000
 
ion      s     py     pz     px    dxy    dyz    dz2    dxz    dx2    tot
  1  0.052  0.000  0.265  0.058  0.000  0.000  0.000  0.000  0.000  0.375
  2  0.002  0.000  0.034  0.170  0.000  0.000  0.000  0.000  0.000  0.207
tot  0.054  0.000  0.300  0.229  0.000  0.000  0.000  0.000  0.000  0.582
 
band   8 # energy    3.63975383 # occ.  0.00000000
 
ion      s     py     pz     px    dxy    dyz    dz2    dxz    dx2    tot
  1  0.000  0.534  0.000  0.000  0.000  0.000  0.000  0.000  0.000  0.534
  2  0.000  0.227  0.000  0.000  0.000  0.000  0.000  0.000  0.000  0.227
tot  0.000  0.761  0.000  0.000  0.000  0.000  0.000  0.000  0.000  0.761
 
band   9 # energy    7.52523582 # occ.  0.00000000
 
ion      s     py     pz     px    dxy    dyz    dz2    dxz    dx2    tot
  1  0.002  0.000  0.000  0.002  0.000  0.000  0.000  0.000  0.000  0.004
  2  0.002  0.000  0.011  0.024  0.000  0.000  0.000  0.000  0.000  0.036
tot  0.004  0.000  0.011  0.025  0.000  0.000  0.000  0.000  0.000  0.040
 
band  10 # energy    8.88892270 # occ.  0.00000000
 
ion      s     py     pz     px    dxy    dyz    dz2    dxz    dx2    tot
  1  0.000  0.000  0.000  0.000  0.000  0.000  0.000  0.000  0.000  0.001
  2  0.000  0.000  0.002  0.010  0.000  0.000  0.000  0.000  0.000  0.012
tot  0.001  0.000  0.002  0.010  0.000  0.000  0.000  0.000  0.000  0.013
 
band  11 # energy    9.75557803 # occ.  0.00000000
 
ion      s     py     pz     px    dxy    dyz    dz2    dxz    dx2    tot
  1  0.000  0.000  0.002  0.000  0.000  0.000  0.000  0.000  0.000  0.003
  2  0.001  0.000  0.005  0.009  0.000  0.000  0.000  0.000  0.000  0.015
tot  0.001  0.000  0.008  0.009  0.000  0.000  0.000  0.000  0.000  0.018
 
band  12 # energy   10.51675804 # occ.  0.00000000
 
ion      s     py     pz     px    dxy    dyz    dz2    dxz    dx2    tot
  1  0.004  0.000  0.008  0.012  0.000  0.000  0.000  0.000  0.000  0.024
  2  0.001  0.000  0.008  0.011  0.000  0.000  0.000  0.000  0.000  0.019
tot  0.005  0.000  0.015  0.023  0.000  0.000  0.000  0.000  0.000  0.043
 
band  13 # energy   10.80694878 # occ.  0.00000000
 
ion      s     py     pz     px    dxy    dyz    dz2    dxz    dx2    tot
  1  0.002  0.000  0.006  0.009  0.000  0.000  0.000  0.000  0.000  0.016
  2  0.002  0.000  0.002  0.024  0.000  0.000  0.000  0.000  0.000  0.028
tot  0.004  0.000  0.008  0.032  0.000  0.000  0.000  0.000  0.000  0.044
 
band  14 # energy   11.41199344 # occ.  0.00000000
 
ion      s     py     pz     px    dxy    dyz    dz2    dxz    dx2    tot
  1  0.001  0.000  0.000  0.000  0.000  0.000  0.000  0.000  0.000  0.001
  2  0.001  0.000  0.003  0.003  0.000  0.000  0.000  0.000  0.000  0.007
tot  0.001  0.000  0.003  0.003  0.000  0.000  0.000  0.000  0.000  0.008
 
band  15 # energy   11.81728276 # occ.  0.00000000
 
ion      s     py     pz     px    dxy    dyz    dz2    dxz    dx2    tot
  1  0.001  0.000  0.003  0.005  0.000  0.000  0.000  0.000  0.000  0.009
  2  0.000  0.000  0.002  0.007  0.000  0.000  0.000  0.000  0.000  0.009
tot  0.001  0.000  0.005  0.012  0.000  0.000  0.000  0.000  0.000  0.018
 
band  16 # energy   12.55100712 # occ.  0.00000000
 
ion      s     py     pz     px    dxy    dyz    dz2    dxz    dx2    tot
  1  0.001  0.000  0.015  0.011  0.000  0.000  0.000  0.000  0.000  0.027
  2  0.002  0.000  0.003  0.033  0.000  0.000  0.000  0.000  0.000  0.037
tot  0.003  0.000  0.018  0.044  0.000  0.000  0.000  0.000  0.000  0.065
 
band  17 # energy   12.97705829 # occ.  0.00000000
 
ion      s     py     pz     px    dxy    dyz    dz2    dxz    dx2    tot
  1  0.004  0.000  0.001  0.001  0.000  0.000  0.000  0.000  0.000  0.007
  2  0.001  0.000  0.002  0.027  0.000  0.000  0.000  0.000  0.000  0.030
tot  0.005  0.000  0.003  0.028  0.000  0.000  0.000  0.000  0.000  0.036
 
band  18 # energy   13.31784391 # occ.  0.00000000
 
ion      s     py     pz     px    dxy    dyz    dz2    dxz    dx2    tot
  1  0.001  0.000  0.010  0.002  0.000  0.000  0.000  0.000  0.000  0.013
  2  0.001  0.000  0.005  0.003  0.000  0.000  0.000  0.000  0.000  0.009
tot  0.002  0.000  0.015  0.005  0.000  0.000  0.000  0.000  0.000  0.022
 
band  19 # energy   13.86213449 # occ.  0.00000000
 
ion      s     py     pz     px    dxy    dyz    dz2    dxz    dx2    tot
  1  0.003  0.000  0.005  0.001  0.000  0.000  0.000  0.000  0.000  0.009
  2  0.001  0.000  0.002  0.002  0.000  0.000  0.000  0.000  0.000  0.005
tot  0.003  0.000  0.007  0.003  0.000  0.000  0.000  0.000  0.000  0.014
 
band  20 # energy   14.34434314 # occ.  0.00000000
 
ion      s     py     pz     px    dxy    dyz    dz2    dxz    dx2    tot
  1  0.002  0.000  0.008  0.002  0.000  0.000  0.000  0.000  0.000  0.012
  2  0.000  0.000  0.001  0.015  0.000  0.000  0.000  0.000  0.000  0.017
tot  0.002  0.000  0.009  0.017  0.000  0.000  0.000  0.000  0.000  0.028
 
band  21 # energy   14.98843317 # occ.  0.00000000
 
ion      s     py     pz     px    dxy    dyz    dz2    dxz    dx2    tot
  1  0.002  0.000  0.013  0.004  0.000  0.000  0.000  0.000  0.000  0.019
  2  0.001  0.000  0.019  0.053  0.000  0.000  0.000  0.000  0.000  0.073
tot  0.003  0.000  0.032  0.057  0.000  0.000  0.000  0.000  0.000  0.092
 
band  22 # energy   15.58143040 # occ.  0.00000000
 
ion      s     py     pz     px    dxy    dyz    dz2    dxz    dx2    tot
  1  0.002  0.000  0.017  0.002  0.000  0.000  0.000  0.000  0.000  0.021
  2  0.000  0.000  0.005  0.005  0.000  0.000  0.000  0.000  0.000  0.010
tot  0.002  0.000  0.021  0.007  0.000  0.000  0.000  0.000  0.000  0.031
 
band  23 # energy   16.22718255 # occ.  0.00000000
 
ion      s     py     pz     px    dxy    dyz    dz2    dxz    dx2    tot
  1  0.001  0.000  0.002  0.011  0.000  0.000  0.000  0.000  0.000  0.014
  2  0.004  0.000  0.002  0.005  0.000  0.000  0.000  0.000  0.000  0.011
tot  0.005  0.000  0.004  0.017  0.000  0.000  0.000  0.000  0.000  0.025
 
band  24 # energy   16.51569919 # occ.  0.00000000
 
ion      s     py     pz     px    dxy    dyz    dz2    dxz    dx2    tot
  1  0.004  0.000  0.018  0.018  0.000  0.000  0.000  0.000  0.000  0.040
  2  0.002  0.000  0.008  0.019  0.000  0.000  0.000  0.000  0.000  0.029
tot  0.006  0.000  0.027  0.036  0.000  0.000  0.000  0.000  0.000  0.069
 

 k-point   20 :    0.44827586 0.44827586 0.00000000     weight = 0.00000000

band   1 # energy  -30.40425458 # occ.  2.00000000
 
ion      s     py     pz     px    dxy    dyz    dz2    dxz    dx2    tot
  1  0.034  0.000  0.006  0.051  0.000  0.000  0.000  0.000  0.000  0.090
  2  0.720  0.000  0.018  0.004  0.000  0.000  0.000  0.000  0.000  0.741
tot  0.753  0.000  0.024  0.054  0.000  0.000  0.000  0.000  0.000  0.831
 
band   2 # energy  -21.52630004 # occ.  2.00000000
 
ion      s     py     pz     px    dxy    dyz    dz2    dxz    dx2    tot
  1  0.220  0.000  0.038  0.039  0.000  0.000  0.000  0.000  0.000  0.297
  2  0.020  0.000  0.000  0.377  0.000  0.000  0.000  0.000  0.000  0.397
tot  0.241  0.000  0.038  0.416  0.000  0.000  0.000  0.000  0.000  0.694
 
band   3 # energy  -13.67178625 # occ.  2.00000000
 
ion      s     py     pz     px    dxy    dyz    dz2    dxz    dx2    tot
  1  0.000  0.175  0.000  0.000  0.000  0.000  0.000  0.000  0.000  0.175
  2  0.000  0.627  0.000  0.000  0.000  0.000  0.000  0.000  0.000  0.627
tot  0.000  0.802  0.000  0.000  0.000  0.000  0.000  0.000  0.000  0.802
 
band   4 # energy  -13.60797646 # occ.  2.00000000
 
ion      s     py     pz     px    dxy    dyz    dz2    dxz    dx2    tot
  1  0.043  0.000  0.005  0.080  0.000  0.000  0.000  0.000  0.000  0.129
  2  0.070  0.000  0.522  0.003  0.000  0.000  0.000  0.000  0.000  0.596
tot  0.113  0.000  0.528  0.084  0.000  0.000  0.000  0.000  0.000  0.725
 
band   5 # energy   -6.93548461 # occ.  2.00000000
 
ion      s     py     pz     px    dxy    dyz    dz2    dxz    dx2    tot
  1  0.234  0.000  0.214  0.014  0.000  0.000  0.000  0.000  0.000  0.462
  2  0.000  0.000  0.052  0.095  0.000  0.000  0.000  0.000  0.000  0.147
tot  0.234  0.000  0.267  0.109  0.000  0.000  0.000  0.000  0.000  0.610
 
band   6 # energy   -1.34264277 # occ.  0.00000000
 
ion      s     py     pz     px    dxy    dyz    dz2    dxz    dx2    tot
  1  0.087  0.000  0.046  0.188  0.000  0.000  0.000  0.000  0.000  0.322
  2  0.082  0.000  0.142  0.010  0.000  0.000  0.000  0.000  0.000  0.234
tot  0.169  0.000  0.189  0.198  0.000  0.000  0.000  0.000  0.000  0.556
 
band   7 # energy    2.47718267 # occ.  0.00000000
 
ion      s     py     pz     px    dxy    dyz    dz2    dxz    dx2    tot
  1  0.053  0.000  0.262  0.060  0.000  0.000  0.000  0.000  0.000  0.375
  2  0.004  0.000  0.035  0.171  0.000  0.000  0.000  0.000  0.000  0.209
tot  0.056  0.000  0.297  0.231  0.000  0.000  0.000  0.000  0.000  0.584
 
band   8 # energy    3.62935445 # occ.  0.00000000
 
ion      s     py     pz     px    dxy    dyz    dz2    dxz    dx2    tot
  1  0.000  0.535  0.000  0.000  0.000  0.000  0.000  0.000  0.000  0.535
  2  0.000  0.227  0.000  0.000  0.000  0.000  0.000  0.000  0.000  0.227
tot  0.000  0.762  0.000  0.000  0.000  0.000  0.000  0.000  0.000  0.762
 
band   9 # energy    7.02296100 # occ.  0.00000000
 
ion      s     py     pz     px    dxy    dyz    dz2    dxz    dx2    tot
  1  0.002  0.000  0.001  0.002  0.000  0.000  0.000  0.000  0.000  0.005
  2  0.002  0.000  0.013  0.021  0.000  0.000  0.000  0.000  0.000  0.036
tot  0.004  0.000  0.014  0.023  0.000  0.000  0.000  0.000  0.000  0.041
 
band  10 # energy    8.37079941 # occ.  0.00000000
 
ion      s     py     pz     px    dxy    dyz    dz2    dxz    dx2    tot
  1  0.001  0.000  0.000  0.000  0.000  0.000  0.000  0.000  0.000  0.001
  2  0.001  0.000  0.004  0.008  0.000  0.000  0.000  0.000  0.000  0.012
tot  0.001  0.000  0.004  0.008  0.000  0.000  0.000  0.000  0.000  0.014
 
band  11 # energy    9.72040276 # occ.  0.00000000
 
ion      s     py     pz     px    dxy    dyz    dz2    dxz    dx2    tot
  1  0.001  0.000  0.008  0.003  0.000  0.000  0.000  0.000  0.000  0.013
  2  0.000  0.000  0.002  0.005  0.000  0.000  0.000  0.000  0.000  0.008
tot  0.001  0.000  0.010  0.009  0.000  0.000  0.000  0.000  0.000  0.020
 
band  12 # energy   10.25957606 # occ.  0.00000000
 
ion      s     py     pz     px    dxy    dyz    dz2    dxz    dx2    tot
  1  0.004  0.000  0.009  0.012  0.000  0.000  0.000  0.000  0.000  0.025
  2  0.002  0.000  0.000  0.027  0.000  0.000  0.000  0.000  0.000  0.029
tot  0.006  0.000  0.009  0.039  0.000  0.000  0.000  0.000  0.000  0.054
 
band  13 # energy   10.63492936 # occ.  0.00000000
 